Pretty Formula,Density,Energy,Energy_per_Atom,Volume,Formation_Energy_per_Atom,Band Gap
IF7,3.515397598621534,-46.39171023,-2.899481889375,245.5272532663507,-1.46661811729125,1.4709999999999996
KrF2,3.1571604046386486,-4.02643257,-1.34214419,64.05915600591402,-0.37639807746000004,2.8529
XeF3,3.718186044211467,-30.79458303,-1.924661439375,336.35748087351016,-0.8503111265174998,2.48
BrCl,2.419080569348,-7.14595657,-1.7864891425,158.36992323815704,-0.3450562641299999,1.7847
ICl,3.063118954974632,-29.24638747,-1.827899216875,704.1213125145812,-0.44144410850500004,1.4704000000000002
IBr,3.4148138583410046,-6.64234845,-1.6605871125,201.13162970734047,-0.08655010249999995,1.4045